    1C
    1UUSER                                                              
    1UDATE              17.october.2022                                 
    1UTIME              08:48:40                                        
    1UHOST                                                              
    1UPGM               CalculiX                                        
    1UVERSION           Version 2.20                             
    1UCOMPILETIME       Fri Jul 29 19:13:05 CEST 2022                    
    1UDIR                                                               
    1UDBN                                                               
    1UMAT    1S420                                                      
    2C                           930                                     1
 -1         1 0.00000E+00 4.95700E-01 3.13500E-01
 -1         2 0.00000E+00 5.04300E-01 3.13500E-01
 -1         3 3.00000E+00 4.95700E-01 3.13500E-01
 -1         4 3.00000E+00 5.04300E-01 3.13500E-01
 -1         5 0.00000E+00 4.95700E-01 6.86500E-01
 -1         6 0.00000E+00 5.04300E-01 6.86500E-01
 -1         7 3.00000E+00 4.95700E-01 6.86500E-01
 -1         8 3.00000E+00 5.04300E-01 6.86500E-01
 -1         9 0.00000E+00 4.95700E-01 3.00000E-01
 -1        10 3.00000E+00 4.95700E-01 3.00000E-01
 -1        11 0.00000E+00 4.10000E-01 3.00000E-01
 -1        12 0.00000E+00 4.10000E-01 3.13500E-01
 -1        13 3.00000E+00 4.10000E-01 3.00000E-01
 -1        14 3.00000E+00 4.10000E-01 3.13500E-01
 -1        15 0.00000E+00 4.95700E-01 7.00000E-01
 -1        16 3.00000E+00 4.95700E-01 7.00000E-01
 -1        17 0.00000E+00 4.10000E-01 6.86500E-01
 -1        18 0.00000E+00 4.10000E-01 7.00000E-01
 -1        19 3.00000E+00 4.10000E-01 6.86500E-01
 -1        20 3.00000E+00 4.10000E-01 7.00000E-01
 -1        21 0.00000E+00 5.90000E-01 3.13500E-01
 -1        22 0.00000E+00 5.90000E-01 3.00000E-01
 -1        23 3.00000E+00 5.90000E-01 3.00000E-01
 -1        24 3.00000E+00 5.90000E-01 3.13500E-01
 -1        25 0.00000E+00 5.04300E-01 3.00000E-01
 -1        26 3.00000E+00 5.04300E-01 3.00000E-01
 -1        27 0.00000E+00 5.04300E-01 7.00000E-01
 -1        28 0.00000E+00 5.90000E-01 7.00000E-01
 -1        29 0.00000E+00 5.90000E-01 6.86500E-01
 -1        30 3.00000E+00 5.04300E-01 7.00000E-01
 -1        31 3.00000E+00 5.90000E-01 7.00000E-01
 -1        32 3.00000E+00 5.90000E-01 6.86500E-01
 -1        33 1.00000E-01 5.04300E-01 3.13500E-01
 -1        34 2.00000E-01 5.04300E-01 3.13500E-01
 -1        35 3.00000E-01 5.04300E-01 3.13500E-01
 -1        36 4.00000E-01 5.04300E-01 3.13500E-01
 -1        37 5.00000E-01 5.04300E-01 3.13500E-01
 -1        38 6.00000E-01 5.04300E-01 3.13500E-01
 -1        39 7.00000E-01 5.04300E-01 3.13500E-01
 -1        40 8.00000E-01 5.04300E-01 3.13500E-01
 -1        41 9.00000E-01 5.04300E-01 3.13500E-01
 -1        42 1.00000E+00 5.04300E-01 3.13500E-01
 -1        43 1.10000E+00 5.04300E-01 3.13500E-01
 -1        44 1.20000E+00 5.04300E-01 3.13500E-01
 -1        45 1.30000E+00 5.04300E-01 3.13500E-01
 -1        46 1.40000E+00 5.04300E-01 3.13500E-01
 -1        47 1.50000E+00 5.04300E-01 3.13500E-01
 -1        48 1.60000E+00 5.04300E-01 3.13500E-01
 -1        49 1.70000E+00 5.04300E-01 3.13500E-01
 -1        50 1.80000E+00 5.04300E-01 3.13500E-01
 -1        51 1.90000E+00 5.04300E-01 3.13500E-01
 -1        52 2.00000E+00 5.04300E-01 3.13500E-01
 -1        53 2.10000E+00 5.04300E-01 3.13500E-01
 -1        54 2.20000E+00 5.04300E-01 3.13500E-01
 -1        55 2.30000E+00 5.04300E-01 3.13500E-01
 -1        56 2.40000E+00 5.04300E-01 3.13500E-01
 -1        57 2.50000E+00 5.04300E-01 3.13500E-01
 -1        58 2.60000E+00 5.04300E-01 3.13500E-01
 -1        59 2.70000E+00 5.04300E-01 3.13500E-01
 -1        60 2.80000E+00 5.04300E-01 3.13500E-01
 -1        61 2.90000E+00 5.04300E-01 3.13500E-01
 -1        62 1.00000E-01 4.95700E-01 3.13500E-01
 -1        63 2.00000E-01 4.95700E-01 3.13500E-01
 -1        64 3.00000E-01 4.95700E-01 3.13500E-01
 -1        65 4.00000E-01 4.95700E-01 3.13500E-01
 -1        66 5.00000E-01 4.95700E-01 3.13500E-01
 -1        67 6.00000E-01 4.95700E-01 3.13500E-01
 -1        68 7.00000E-01 4.95700E-01 3.13500E-01
 -1        69 8.00000E-01 4.95700E-01 3.13500E-01
 -1        70 9.00000E-01 4.95700E-01 3.13500E-01
 -1        71 1.00000E+00 4.95700E-01 3.13500E-01
 -1        72 1.10000E+00 4.95700E-01 3.13500E-01
 -1        73 1.20000E+00 4.95700E-01 3.13500E-01
 -1        74 1.30000E+00 4.95700E-01 3.13500E-01
 -1        75 1.40000E+00 4.95700E-01 3.13500E-01
 -1        76 1.50000E+00 4.95700E-01 3.13500E-01
 -1        77 1.60000E+00 4.95700E-01 3.13500E-01
 -1        78 1.70000E+00 4.95700E-01 3.13500E-01
 -1        79 1.80000E+00 4.95700E-01 3.13500E-01
 -1        80 1.90000E+00 4.95700E-01 3.13500E-01
 -1        81 2.00000E+00 4.95700E-01 3.13500E-01
 -1        82 2.10000E+00 4.95700E-01 3.13500E-01
 -1        83 2.20000E+00 4.95700E-01 3.13500E-01
 -1        84 2.30000E+00 4.95700E-01 3.13500E-01
 -1        85 2.40000E+00 4.95700E-01 3.13500E-01
 -1        86 2.50000E+00 4.95700E-01 3.13500E-01
 -1        87 2.60000E+00 4.95700E-01 3.13500E-01
 -1        88 2.70000E+00 4.95700E-01 3.13500E-01
 -1        89 2.80000E+00 4.95700E-01 3.13500E-01
 -1        90 2.90000E+00 4.95700E-01 3.13500E-01
 -1        91 0.00000E+00 4.95700E-01 4.06750E-01
 -1        92 0.00000E+00 4.95700E-01 5.00000E-01
 -1        93 0.00000E+00 4.95700E-01 5.93250E-01
 -1        94 0.00000E+00 5.04300E-01 5.93250E-01
 -1        95 0.00000E+00 5.04300E-01 5.00000E-01
 -1        96 0.00000E+00 5.04300E-01 4.06750E-01
 -1        97 1.00000E-01 4.95700E-01 6.86500E-01
 -1        98 2.00000E-01 4.95700E-01 6.86500E-01
 -1        99 3.00000E-01 4.95700E-01 6.86500E-01
 -1       100 4.00000E-01 4.95700E-01 6.86500E-01
 -1       101 5.00000E-01 4.95700E-01 6.86500E-01
 -1       102 6.00000E-01 4.95700E-01 6.86500E-01
 -1       103 7.00000E-01 4.95700E-01 6.86500E-01
 -1       104 8.00000E-01 4.95700E-01 6.86500E-01
 -1       105 9.00000E-01 4.95700E-01 6.86500E-01
 -1       106 1.00000E+00 4.95700E-01 6.86500E-01
 -1       107 1.10000E+00 4.95700E-01 6.86500E-01
 -1       108 1.20000E+00 4.95700E-01 6.86500E-01
 -1       109 1.30000E+00 4.95700E-01 6.86500E-01
 -1       110 1.40000E+00 4.95700E-01 6.86500E-01
 -1       111 1.50000E+00 4.95700E-01 6.86500E-01
 -1       112 1.60000E+00 4.95700E-01 6.86500E-01
 -1       113 1.70000E+00 4.95700E-01 6.86500E-01
 -1       114 1.80000E+00 4.95700E-01 6.86500E-01
 -1       115 1.90000E+00 4.95700E-01 6.86500E-01
 -1       116 2.00000E+00 4.95700E-01 6.86500E-01
 -1       117 2.10000E+00 4.95700E-01 6.86500E-01
 -1       118 2.20000E+00 4.95700E-01 6.86500E-01
 -1       119 2.30000E+00 4.95700E-01 6.86500E-01
 -1       120 2.40000E+00 4.95700E-01 6.86500E-01
 -1       121 2.50000E+00 4.95700E-01 6.86500E-01
 -1       122 2.60000E+00 4.95700E-01 6.86500E-01
 -1       123 2.70000E+00 4.95700E-01 6.86500E-01
 -1       124 2.80000E+00 4.95700E-01 6.86500E-01
 -1       125 2.90000E+00 4.95700E-01 6.86500E-01
 -1       126 3.00000E+00 4.95700E-01 4.06750E-01
 -1       127 3.00000E+00 4.95700E-01 5.00000E-01
 -1       128 3.00000E+00 4.95700E-01 5.93250E-01
 -1       129 1.00000E-01 5.04300E-01 6.86500E-01
 -1       130 2.00000E-01 5.04300E-01 6.86500E-01
 -1       131 3.00000E-01 5.04300E-01 6.86500E-01
 -1       132 4.00000E-01 5.04300E-01 6.86500E-01
 -1       133 5.00000E-01 5.04300E-01 6.86500E-01
 -1       134 6.00000E-01 5.04300E-01 6.86500E-01
 -1       135 7.00000E-01 5.04300E-01 6.86500E-01
 -1       136 8.00000E-01 5.04300E-01 6.86500E-01
 -1       137 9.00000E-01 5.04300E-01 6.86500E-01
 -1       138 1.00000E+00 5.04300E-01 6.86500E-01
 -1       139 1.10000E+00 5.04300E-01 6.86500E-01
 -1       140 1.20000E+00 5.04300E-01 6.86500E-01
 -1       141 1.30000E+00 5.04300E-01 6.86500E-01
 -1       142 1.40000E+00 5.04300E-01 6.86500E-01
 -1       143 1.50000E+00 5.04300E-01 6.86500E-01
 -1       144 1.60000E+00 5.04300E-01 6.86500E-01
 -1       145 1.70000E+00 5.04300E-01 6.86500E-01
 -1       146 1.80000E+00 5.04300E-01 6.86500E-01
 -1       147 1.90000E+00 5.04300E-01 6.86500E-01
 -1       148 2.00000E+00 5.04300E-01 6.86500E-01
 -1       149 2.10000E+00 5.04300E-01 6.86500E-01
 -1       150 2.20000E+00 5.04300E-01 6.86500E-01
 -1       151 2.30000E+00 5.04300E-01 6.86500E-01
 -1       152 2.40000E+00 5.04300E-01 6.86500E-01
 -1       153 2.50000E+00 5.04300E-01 6.86500E-01
 -1       154 2.60000E+00 5.04300E-01 6.86500E-01
 -1       155 2.70000E+00 5.04300E-01 6.86500E-01
 -1       156 2.80000E+00 5.04300E-01 6.86500E-01
 -1       157 2.90000E+00 5.04300E-01 6.86500E-01
 -1       158 3.00000E+00 5.04300E-01 5.93250E-01
 -1       159 3.00000E+00 5.04300E-01 5.00000E-01
 -1       160 3.00000E+00 5.04300E-01 4.06750E-01
 -1       161 1.00000E-01 4.95700E-01 3.00000E-01
 -1       162 2.00000E-01 4.95700E-01 3.00000E-01
 -1       163 3.00000E-01 4.95700E-01 3.00000E-01
 -1       164 4.00000E-01 4.95700E-01 3.00000E-01
 -1       165 5.00000E-01 4.95700E-01 3.00000E-01
 -1       166 6.00000E-01 4.95700E-01 3.00000E-01
 -1       167 7.00000E-01 4.95700E-01 3.00000E-01
 -1       168 8.00000E-01 4.95700E-01 3.00000E-01
 -1       169 9.00000E-01 4.95700E-01 3.00000E-01
 -1       170 1.00000E+00 4.95700E-01 3.00000E-01
 -1       171 1.10000E+00 4.95700E-01 3.00000E-01
 -1       172 1.20000E+00 4.95700E-01 3.00000E-01
 -1       173 1.30000E+00 4.95700E-01 3.00000E-01
 -1       174 1.40000E+00 4.95700E-01 3.00000E-01
 -1       175 1.50000E+00 4.95700E-01 3.00000E-01
 -1       176 1.60000E+00 4.95700E-01 3.00000E-01
 -1       177 1.70000E+00 4.95700E-01 3.00000E-01
 -1       178 1.80000E+00 4.95700E-01 3.00000E-01
 -1       179 1.90000E+00 4.95700E-01 3.00000E-01
 -1       180 2.00000E+00 4.95700E-01 3.00000E-01
 -1       181 2.10000E+00 4.95700E-01 3.00000E-01
 -1       182 2.20000E+00 4.95700E-01 3.00000E-01
 -1       183 2.30000E+00 4.95700E-01 3.00000E-01
 -1       184 2.40000E+00 4.95700E-01 3.00000E-01
 -1       185 2.50000E+00 4.95700E-01 3.00000E-01
 -1       186 2.60000E+00 4.95700E-01 3.00000E-01
 -1       187 2.70000E+00 4.95700E-01 3.00000E-01
 -1       188 2.80000E+00 4.95700E-01 3.00000E-01
 -1       189 2.90000E+00 4.95700E-01 3.00000E-01
 -1       190 0.00000E+00 4.52850E-01 3.00000E-01
 -1       191 0.00000E+00 4.52850E-01 3.13500E-01
 -1       192 3.00000E+00 4.52850E-01 3.00000E-01
 -1       193 1.00000E-01 4.10000E-01 3.00000E-01
 -1       194 2.00000E-01 4.10000E-01 3.00000E-01
 -1       195 3.00000E-01 4.10000E-01 3.00000E-01
 -1       196 4.00000E-01 4.10000E-01 3.00000E-01
 -1       197 5.00000E-01 4.10000E-01 3.00000E-01
 -1       198 6.00000E-01 4.10000E-01 3.00000E-01
 -1       199 7.00000E-01 4.10000E-01 3.00000E-01
 -1       200 8.00000E-01 4.10000E-01 3.00000E-01
 -1       201 9.00000E-01 4.10000E-01 3.00000E-01
 -1       202 1.00000E+00 4.10000E-01 3.00000E-01
 -1       203 1.10000E+00 4.10000E-01 3.00000E-01
 -1       204 1.20000E+00 4.10000E-01 3.00000E-01
 -1       205 1.30000E+00 4.10000E-01 3.00000E-01
 -1       206 1.40000E+00 4.10000E-01 3.00000E-01
 -1       207 1.50000E+00 4.10000E-01 3.00000E-01
 -1       208 1.60000E+00 4.10000E-01 3.00000E-01
 -1       209 1.70000E+00 4.10000E-01 3.00000E-01
 -1       210 1.80000E+00 4.10000E-01 3.00000E-01
 -1       211 1.90000E+00 4.10000E-01 3.00000E-01
 -1       212 2.00000E+00 4.10000E-01 3.00000E-01
 -1       213 2.10000E+00 4.10000E-01 3.00000E-01
 -1       214 2.20000E+00 4.10000E-01 3.00000E-01
 -1       215 2.30000E+00 4.10000E-01 3.00000E-01
 -1       216 2.40000E+00 4.10000E-01 3.00000E-01
 -1       217 2.50000E+00 4.10000E-01 3.00000E-01
 -1       218 2.60000E+00 4.10000E-01 3.00000E-01
 -1       219 2.70000E+00 4.10000E-01 3.00000E-01
 -1       220 2.80000E+00 4.10000E-01 3.00000E-01
 -1       221 2.90000E+00 4.10000E-01 3.00000E-01
 -1       222 1.00000E-01 4.10000E-01 3.13500E-01
 -1       223 2.00000E-01 4.10000E-01 3.13500E-01
 -1       224 3.00000E-01 4.10000E-01 3.13500E-01
 -1       225 4.00000E-01 4.10000E-01 3.13500E-01
 -1       226 5.00000E-01 4.10000E-01 3.13500E-01
 -1       227 6.00000E-01 4.10000E-01 3.13500E-01
 -1       228 7.00000E-01 4.10000E-01 3.13500E-01
 -1       229 8.00000E-01 4.10000E-01 3.13500E-01
 -1       230 9.00000E-01 4.10000E-01 3.13500E-01
 -1       231 1.00000E+00 4.10000E-01 3.13500E-01
 -1       232 1.10000E+00 4.10000E-01 3.13500E-01
 -1       233 1.20000E+00 4.10000E-01 3.13500E-01
 -1       234 1.30000E+00 4.10000E-01 3.13500E-01
 -1       235 1.40000E+00 4.10000E-01 3.13500E-01
 -1       236 1.50000E+00 4.10000E-01 3.13500E-01
 -1       237 1.60000E+00 4.10000E-01 3.13500E-01
 -1       238 1.70000E+00 4.10000E-01 3.13500E-01
 -1       239 1.80000E+00 4.10000E-01 3.13500E-01
 -1       240 1.90000E+00 4.10000E-01 3.13500E-01
 -1       241 2.00000E+00 4.10000E-01 3.13500E-01
 -1       242 2.10000E+00 4.10000E-01 3.13500E-01
 -1       243 2.20000E+00 4.10000E-01 3.13500E-01
 -1       244 2.30000E+00 4.10000E-01 3.13500E-01
 -1       245 2.40000E+00 4.10000E-01 3.13500E-01
 -1       246 2.50000E+00 4.10000E-01 3.13500E-01
 -1       247 2.60000E+00 4.10000E-01 3.13500E-01
 -1       248 2.70000E+00 4.10000E-01 3.13500E-01
 -1       249 2.80000E+00 4.10000E-01 3.13500E-01
 -1       250 2.90000E+00 4.10000E-01 3.13500E-01
 -1       251 3.00000E+00 4.52850E-01 3.13500E-01
 -1       252 2.90000E+00 4.95700E-01 7.00000E-01
 -1       253 2.80000E+00 4.95700E-01 7.00000E-01
 -1       254 2.70000E+00 4.95700E-01 7.00000E-01
 -1       255 2.60000E+00 4.95700E-01 7.00000E-01
 -1       256 2.50000E+00 4.95700E-01 7.00000E-01
 -1       257 2.40000E+00 4.95700E-01 7.00000E-01
 -1       258 2.30000E+00 4.95700E-01 7.00000E-01
 -1       259 2.20000E+00 4.95700E-01 7.00000E-01
 -1       260 2.10000E+00 4.95700E-01 7.00000E-01
 -1       261 2.00000E+00 4.95700E-01 7.00000E-01
 -1       262 1.90000E+00 4.95700E-01 7.00000E-01
 -1       263 1.80000E+00 4.95700E-01 7.00000E-01
 -1       264 1.70000E+00 4.95700E-01 7.00000E-01
 -1       265 1.60000E+00 4.95700E-01 7.00000E-01
 -1       266 1.50000E+00 4.95700E-01 7.00000E-01
 -1       267 1.40000E+00 4.95700E-01 7.00000E-01
 -1       268 1.30000E+00 4.95700E-01 7.00000E-01
 -1       269 1.20000E+00 4.95700E-01 7.00000E-01
 -1       270 1.10000E+00 4.95700E-01 7.00000E-01
 -1       271 1.00000E+00 4.95700E-01 7.00000E-01
 -1       272 9.00000E-01 4.95700E-01 7.00000E-01
 -1       273 8.00000E-01 4.95700E-01 7.00000E-01
 -1       274 7.00000E-01 4.95700E-01 7.00000E-01
 -1       275 6.00000E-01 4.95700E-01 7.00000E-01
 -1       276 5.00000E-01 4.95700E-01 7.00000E-01
 -1       277 4.00000E-01 4.95700E-01 7.00000E-01
 -1       278 3.00000E-01 4.95700E-01 7.00000E-01
 -1       279 2.00000E-01 4.95700E-01 7.00000E-01
 -1       280 1.00000E-01 4.95700E-01 7.00000E-01
 -1       281 0.00000E+00 4.52850E-01 6.86500E-01
 -1       282 0.00000E+00 4.52850E-01 7.00000E-01
 -1       283 1.00000E-01 4.10000E-01 6.86500E-01
 -1       284 2.00000E-01 4.10000E-01 6.86500E-01
 -1       285 3.00000E-01 4.10000E-01 6.86500E-01
 -1       286 4.00000E-01 4.10000E-01 6.86500E-01
 -1       287 5.00000E-01 4.10000E-01 6.86500E-01
 -1       288 6.00000E-01 4.10000E-01 6.86500E-01
 -1       289 7.00000E-01 4.10000E-01 6.86500E-01
 -1       290 8.00000E-01 4.10000E-01 6.86500E-01
 -1       291 9.00000E-01 4.10000E-01 6.86500E-01
 -1       292 1.00000E+00 4.10000E-01 6.86500E-01
 -1       293 1.10000E+00 4.10000E-01 6.86500E-01
 -1       294 1.20000E+00 4.10000E-01 6.86500E-01
 -1       295 1.30000E+00 4.10000E-01 6.86500E-01
 -1       296 1.40000E+00 4.10000E-01 6.86500E-01
 -1       297 1.50000E+00 4.10000E-01 6.86500E-01
 -1       298 1.60000E+00 4.10000E-01 6.86500E-01
 -1       299 1.70000E+00 4.10000E-01 6.86500E-01
 -1       300 1.80000E+00 4.10000E-01 6.86500E-01
 -1       301 1.90000E+00 4.10000E-01 6.86500E-01
 -1       302 2.00000E+00 4.10000E-01 6.86500E-01
 -1       303 2.10000E+00 4.10000E-01 6.86500E-01
 -1       304 2.20000E+00 4.10000E-01 6.86500E-01
 -1       305 2.30000E+00 4.10000E-01 6.86500E-01
 -1       306 2.40000E+00 4.10000E-01 6.86500E-01
 -1       307 2.50000E+00 4.10000E-01 6.86500E-01
 -1       308 2.60000E+00 4.10000E-01 6.86500E-01
 -1       309 2.70000E+00 4.10000E-01 6.86500E-01
 -1       310 2.80000E+00 4.10000E-01 6.86500E-01
 -1       311 2.90000E+00 4.10000E-01 6.86500E-01
 -1       312 3.00000E+00 4.52850E-01 6.86500E-01
 -1       313 1.00000E-01 4.10000E-01 7.00000E-01
 -1       314 2.00000E-01 4.10000E-01 7.00000E-01
 -1       315 3.00000E-01 4.10000E-01 7.00000E-01
 -1       316 4.00000E-01 4.10000E-01 7.00000E-01
 -1       317 5.00000E-01 4.10000E-01 7.00000E-01
 -1       318 6.00000E-01 4.10000E-01 7.00000E-01
 -1       319 7.00000E-01 4.10000E-01 7.00000E-01
 -1       320 8.00000E-01 4.10000E-01 7.00000E-01
 -1       321 9.00000E-01 4.10000E-01 7.00000E-01
 -1       322 1.00000E+00 4.10000E-01 7.00000E-01
 -1       323 1.10000E+00 4.10000E-01 7.00000E-01
 -1       324 1.20000E+00 4.10000E-01 7.00000E-01
 -1       325 1.30000E+00 4.10000E-01 7.00000E-01
 -1       326 1.40000E+00 4.10000E-01 7.00000E-01
 -1       327 1.50000E+00 4.10000E-01 7.00000E-01
 -1       328 1.60000E+00 4.10000E-01 7.00000E-01
 -1       329 1.70000E+00 4.10000E-01 7.00000E-01
 -1       330 1.80000E+00 4.10000E-01 7.00000E-01
 -1       331 1.90000E+00 4.10000E-01 7.00000E-01
 -1       332 2.00000E+00 4.10000E-01 7.00000E-01
 -1       333 2.10000E+00 4.10000E-01 7.00000E-01
 -1       334 2.20000E+00 4.10000E-01 7.00000E-01
 -1       335 2.30000E+00 4.10000E-01 7.00000E-01
 -1       336 2.40000E+00 4.10000E-01 7.00000E-01
 -1       337 2.50000E+00 4.10000E-01 7.00000E-01
 -1       338 2.60000E+00 4.10000E-01 7.00000E-01
 -1       339 2.70000E+00 4.10000E-01 7.00000E-01
 -1       340 2.80000E+00 4.10000E-01 7.00000E-01
 -1       341 2.90000E+00 4.10000E-01 7.00000E-01
 -1       342 3.00000E+00 4.52850E-01 7.00000E-01
 -1       343 1.00000E-01 5.90000E-01 3.00000E-01
 -1       344 2.00000E-01 5.90000E-01 3.00000E-01
 -1       345 3.00000E-01 5.90000E-01 3.00000E-01
 -1       346 4.00000E-01 5.90000E-01 3.00000E-01
 -1       347 5.00000E-01 5.90000E-01 3.00000E-01
 -1       348 6.00000E-01 5.90000E-01 3.00000E-01
 -1       349 7.00000E-01 5.90000E-01 3.00000E-01
 -1       350 8.00000E-01 5.90000E-01 3.00000E-01
 -1       351 9.00000E-01 5.90000E-01 3.00000E-01
 -1       352 1.00000E+00 5.90000E-01 3.00000E-01
 -1       353 1.10000E+00 5.90000E-01 3.00000E-01
 -1       354 1.20000E+00 5.90000E-01 3.00000E-01
 -1       355 1.30000E+00 5.90000E-01 3.00000E-01
 -1       356 1.40000E+00 5.90000E-01 3.00000E-01
 -1       357 1.50000E+00 5.90000E-01 3.00000E-01
 -1       358 1.60000E+00 5.90000E-01 3.00000E-01
 -1       359 1.70000E+00 5.90000E-01 3.00000E-01
 -1       360 1.80000E+00 5.90000E-01 3.00000E-01
 -1       361 1.90000E+00 5.90000E-01 3.00000E-01
 -1       362 2.00000E+00 5.90000E-01 3.00000E-01
 -1       363 2.10000E+00 5.90000E-01 3.00000E-01
 -1       364 2.20000E+00 5.90000E-01 3.00000E-01
 -1       365 2.30000E+00 5.90000E-01 3.00000E-01
 -1       366 2.40000E+00 5.90000E-01 3.00000E-01
 -1       367 2.50000E+00 5.90000E-01 3.00000E-01
 -1       368 2.60000E+00 5.90000E-01 3.00000E-01
 -1       369 2.70000E+00 5.90000E-01 3.00000E-01
 -1       370 2.80000E+00 5.90000E-01 3.00000E-01
 -1       371 2.90000E+00 5.90000E-01 3.00000E-01
 -1       372 1.00000E-01 5.90000E-01 3.13500E-01
 -1       373 2.00000E-01 5.90000E-01 3.13500E-01
 -1       374 3.00000E-01 5.90000E-01 3.13500E-01
 -1       375 4.00000E-01 5.90000E-01 3.13500E-01
 -1       376 5.00000E-01 5.90000E-01 3.13500E-01
 -1       377 6.00000E-01 5.90000E-01 3.13500E-01
 -1       378 7.00000E-01 5.90000E-01 3.13500E-01
 -1       379 8.00000E-01 5.90000E-01 3.13500E-01
 -1       380 9.00000E-01 5.90000E-01 3.13500E-01
 -1       381 1.00000E+00 5.90000E-01 3.13500E-01
 -1       382 1.10000E+00 5.90000E-01 3.13500E-01
 -1       383 1.20000E+00 5.90000E-01 3.13500E-01
 -1       384 1.30000E+00 5.90000E-01 3.13500E-01
 -1       385 1.40000E+00 5.90000E-01 3.13500E-01
 -1       386 1.50000E+00 5.90000E-01 3.13500E-01
 -1       387 1.60000E+00 5.90000E-01 3.13500E-01
 -1       388 1.70000E+00 5.90000E-01 3.13500E-01
 -1       389 1.80000E+00 5.90000E-01 3.13500E-01
 -1       390 1.90000E+00 5.90000E-01 3.13500E-01
 -1       391 2.00000E+00 5.90000E-01 3.13500E-01
 -1       392 2.10000E+00 5.90000E-01 3.13500E-01
 -1       393 2.20000E+00 5.90000E-01 3.13500E-01
 -1       394 2.30000E+00 5.90000E-01 3.13500E-01
 -1       395 2.40000E+00 5.90000E-01 3.13500E-01
 -1       396 2.50000E+00 5.90000E-01 3.13500E-01
 -1       397 2.60000E+00 5.90000E-01 3.13500E-01
 -1       398 2.70000E+00 5.90000E-01 3.13500E-01
 -1       399 2.80000E+00 5.90000E-01 3.13500E-01
 -1       400 2.90000E+00 5.90000E-01 3.13500E-01
 -1       401 0.00000E+00 5.47150E-01 3.00000E-01
 -1       402 0.00000E+00 5.47150E-01 3.13500E-01
 -1       403 3.00000E+00 5.47150E-01 3.00000E-01
 -1       404 1.00000E-01 5.04300E-01 3.00000E-01
 -1       405 2.00000E-01 5.04300E-01 3.00000E-01
 -1       406 3.00000E-01 5.04300E-01 3.00000E-01
 -1       407 4.00000E-01 5.04300E-01 3.00000E-01
 -1       408 5.00000E-01 5.04300E-01 3.00000E-01
 -1       409 6.00000E-01 5.04300E-01 3.00000E-01
 -1       410 7.00000E-01 5.04300E-01 3.00000E-01
 -1       411 8.00000E-01 5.04300E-01 3.00000E-01
 -1       412 9.00000E-01 5.04300E-01 3.00000E-01
 -1       413 1.00000E+00 5.04300E-01 3.00000E-01
 -1       414 1.10000E+00 5.04300E-01 3.00000E-01
 -1       415 1.20000E+00 5.04300E-01 3.00000E-01
 -1       416 1.30000E+00 5.04300E-01 3.00000E-01
 -1       417 1.40000E+00 5.04300E-01 3.00000E-01
 -1       418 1.50000E+00 5.04300E-01 3.00000E-01
 -1       419 1.60000E+00 5.04300E-01 3.00000E-01
 -1       420 1.70000E+00 5.04300E-01 3.00000E-01
 -1       421 1.80000E+00 5.04300E-01 3.00000E-01
 -1       422 1.90000E+00 5.04300E-01 3.00000E-01
 -1       423 2.00000E+00 5.04300E-01 3.00000E-01
 -1       424 2.10000E+00 5.04300E-01 3.00000E-01
 -1       425 2.20000E+00 5.04300E-01 3.00000E-01
 -1       426 2.30000E+00 5.04300E-01 3.00000E-01
 -1       427 2.40000E+00 5.04300E-01 3.00000E-01
 -1       428 2.50000E+00 5.04300E-01 3.00000E-01
 -1       429 2.60000E+00 5.04300E-01 3.00000E-01
 -1       430 2.70000E+00 5.04300E-01 3.00000E-01
 -1       431 2.80000E+00 5.04300E-01 3.00000E-01
 -1       432 2.90000E+00 5.04300E-01 3.00000E-01
 -1       433 3.00000E+00 5.47150E-01 3.13500E-01
 -1       434 0.00000E+00 5.47150E-01 7.00000E-01
 -1       435 0.00000E+00 5.47150E-01 6.86500E-01
 -1       436 2.90000E+00 5.04300E-01 7.00000E-01
 -1       437 2.80000E+00 5.04300E-01 7.00000E-01
 -1       438 2.70000E+00 5.04300E-01 7.00000E-01
 -1       439 2.60000E+00 5.04300E-01 7.00000E-01
 -1       440 2.50000E+00 5.04300E-01 7.00000E-01
 -1       441 2.40000E+00 5.04300E-01 7.00000E-01
 -1       442 2.30000E+00 5.04300E-01 7.00000E-01
 -1       443 2.20000E+00 5.04300E-01 7.00000E-01
 -1       444 2.10000E+00 5.04300E-01 7.00000E-01
 -1       445 2.00000E+00 5.04300E-01 7.00000E-01
 -1       446 1.90000E+00 5.04300E-01 7.00000E-01
 -1       447 1.80000E+00 5.04300E-01 7.00000E-01
 -1       448 1.70000E+00 5.04300E-01 7.00000E-01
 -1       449 1.60000E+00 5.04300E-01 7.00000E-01
 -1       450 1.50000E+00 5.04300E-01 7.00000E-01
 -1       451 1.40000E+00 5.04300E-01 7.00000E-01
 -1       452 1.30000E+00 5.04300E-01 7.00000E-01
 -1       453 1.20000E+00 5.04300E-01 7.00000E-01
 -1       454 1.10000E+00 5.04300E-01 7.00000E-01
 -1       455 1.00000E+00 5.04300E-01 7.00000E-01
 -1       456 9.00000E-01 5.04300E-01 7.00000E-01
 -1       457 8.00000E-01 5.04300E-01 7.00000E-01
 -1       458 7.00000E-01 5.04300E-01 7.00000E-01
 -1       459 6.00000E-01 5.04300E-01 7.00000E-01
 -1       460 5.00000E-01 5.04300E-01 7.00000E-01
 -1       461 4.00000E-01 5.04300E-01 7.00000E-01
 -1       462 3.00000E-01 5.04300E-01 7.00000E-01
 -1       463 2.00000E-01 5.04300E-01 7.00000E-01
 -1       464 1.00000E-01 5.04300E-01 7.00000E-01
 -1       465 3.00000E+00 5.47150E-01 7.00000E-01
 -1       466 1.00000E-01 5.90000E-01 7.00000E-01
 -1       467 2.00000E-01 5.90000E-01 7.00000E-01
 -1       468 3.00000E-01 5.90000E-01 7.00000E-01
 -1       469 4.00000E-01 5.90000E-01 7.00000E-01
 -1       470 5.00000E-01 5.90000E-01 7.00000E-01
 -1       471 6.00000E-01 5.90000E-01 7.00000E-01
 -1       472 7.00000E-01 5.90000E-01 7.00000E-01
 -1       473 8.00000E-01 5.90000E-01 7.00000E-01
 -1       474 9.00000E-01 5.90000E-01 7.00000E-01
 -1       475 1.00000E+00 5.90000E-01 7.00000E-01
 -1       476 1.10000E+00 5.90000E-01 7.00000E-01
 -1       477 1.20000E+00 5.90000E-01 7.00000E-01
 -1       478 1.30000E+00 5.90000E-01 7.00000E-01
 -1       479 1.40000E+00 5.90000E-01 7.00000E-01
 -1       480 1.50000E+00 5.90000E-01 7.00000E-01
 -1       481 1.60000E+00 5.90000E-01 7.00000E-01
 -1       482 1.70000E+00 5.90000E-01 7.00000E-01
 -1       483 1.80000E+00 5.90000E-01 7.00000E-01
 -1       484 1.90000E+00 5.90000E-01 7.00000E-01
 -1       485 2.00000E+00 5.90000E-01 7.00000E-01
 -1       486 2.10000E+00 5.90000E-01 7.00000E-01
 -1       487 2.20000E+00 5.90000E-01 7.00000E-01
 -1       488 2.30000E+00 5.90000E-01 7.00000E-01
 -1       489 2.40000E+00 5.90000E-01 7.00000E-01
 -1       490 2.50000E+00 5.90000E-01 7.00000E-01
 -1       491 2.60000E+00 5.90000E-01 7.00000E-01
 -1       492 2.70000E+00 5.90000E-01 7.00000E-01
 -1       493 2.80000E+00 5.90000E-01 7.00000E-01
 -1       494 2.90000E+00 5.90000E-01 7.00000E-01
 -1       495 1.00000E-01 5.90000E-01 6.86500E-01
 -1       496 2.00000E-01 5.90000E-01 6.86500E-01
 -1       497 3.00000E-01 5.90000E-01 6.86500E-01
 -1       498 4.00000E-01 5.90000E-01 6.86500E-01
 -1       499 5.00000E-01 5.90000E-01 6.86500E-01
 -1       500 6.00000E-01 5.90000E-01 6.86500E-01
 -1       501 7.00000E-01 5.90000E-01 6.86500E-01
 -1       502 8.00000E-01 5.90000E-01 6.86500E-01
 -1       503 9.00000E-01 5.90000E-01 6.86500E-01
 -1       504 1.00000E+00 5.90000E-01 6.86500E-01
 -1       505 1.10000E+00 5.90000E-01 6.86500E-01
 -1       506 1.20000E+00 5.90000E-01 6.86500E-01
 -1       507 1.30000E+00 5.90000E-01 6.86500E-01
 -1       508 1.40000E+00 5.90000E-01 6.86500E-01
 -1       509 1.50000E+00 5.90000E-01 6.86500E-01
 -1       510 1.60000E+00 5.90000E-01 6.86500E-01
 -1       511 1.70000E+00 5.90000E-01 6.86500E-01
 -1       512 1.80000E+00 5.90000E-01 6.86500E-01
 -1       513 1.90000E+00 5.90000E-01 6.86500E-01
 -1       514 2.00000E+00 5.90000E-01 6.86500E-01
 -1       515 2.10000E+00 5.90000E-01 6.86500E-01
 -1       516 2.20000E+00 5.90000E-01 6.86500E-01
 -1       517 2.30000E+00 5.90000E-01 6.86500E-01
 -1       518 2.40000E+00 5.90000E-01 6.86500E-01
 -1       519 2.50000E+00 5.90000E-01 6.86500E-01
 -1       520 2.60000E+00 5.90000E-01 6.86500E-01
 -1       521 2.70000E+00 5.90000E-01 6.86500E-01
 -1       522 2.80000E+00 5.90000E-01 6.86500E-01
 -1       523 2.90000E+00 5.90000E-01 6.86500E-01
 -1       524 3.00000E+00 5.47150E-01 6.86500E-01
 -1       525 1.00000E-01 4.95700E-01 4.06750E-01
 -1       526 2.00000E-01 4.95700E-01 4.06750E-01
 -1       527 3.00000E-01 4.95700E-01 4.06750E-01
 -1       528 4.00000E-01 4.95700E-01 4.06750E-01
 -1       529 5.00000E-01 4.95700E-01 4.06750E-01
 -1       530 6.00000E-01 4.95700E-01 4.06750E-01
 -1       531 7.00000E-01 4.95700E-01 4.06750E-01
 -1       532 8.00000E-01 4.95700E-01 4.06750E-01
 -1       533 9.00000E-01 4.95700E-01 4.06750E-01
 -1       534 1.00000E+00 4.95700E-01 4.06750E-01
 -1       535 1.10000E+00 4.95700E-01 4.06750E-01
 -1       536 1.20000E+00 4.95700E-01 4.06750E-01
 -1       537 1.30000E+00 4.95700E-01 4.06750E-01
 -1       538 1.40000E+00 4.95700E-01 4.06750E-01
 -1       539 1.50000E+00 4.95700E-01 4.06750E-01
 -1       540 1.60000E+00 4.95700E-01 4.06750E-01
 -1       541 1.70000E+00 4.95700E-01 4.06750E-01
 -1       542 1.80000E+00 4.95700E-01 4.06750E-01
 -1       543 1.90000E+00 4.95700E-01 4.06750E-01
 -1       544 2.00000E+00 4.95700E-01 4.06750E-01
 -1       545 2.10000E+00 4.95700E-01 4.06750E-01
 -1       546 2.20000E+00 4.95700E-01 4.06750E-01
 -1       547 2.30000E+00 4.95700E-01 4.06750E-01
 -1       548 2.40000E+00 4.95700E-01 4.06750E-01
 -1       549 2.50000E+00 4.95700E-01 4.06750E-01
 -1       550 2.60000E+00 4.95700E-01 4.06750E-01
 -1       551 2.70000E+00 4.95700E-01 4.06750E-01
 -1       552 2.80000E+00 4.95700E-01 4.06750E-01
 -1       553 2.90000E+00 4.95700E-01 4.06750E-01
 -1       554 1.00000E-01 4.95700E-01 5.00000E-01
 -1       555 2.00000E-01 4.95700E-01 5.00000E-01
 -1       556 3.00000E-01 4.95700E-01 5.00000E-01
 -1       557 4.00000E-01 4.95700E-01 5.00000E-01
 -1       558 5.00000E-01 4.95700E-01 5.00000E-01
 -1       559 6.00000E-01 4.95700E-01 5.00000E-01
 -1       560 7.00000E-01 4.95700E-01 5.00000E-01
 -1       561 8.00000E-01 4.95700E-01 5.00000E-01
 -1       562 9.00000E-01 4.95700E-01 5.00000E-01
 -1       563 1.00000E+00 4.95700E-01 5.00000E-01
 -1       564 1.10000E+00 4.95700E-01 5.00000E-01
 -1       565 1.20000E+00 4.95700E-01 5.00000E-01
 -1       566 1.30000E+00 4.95700E-01 5.00000E-01
 -1       567 1.40000E+00 4.95700E-01 5.00000E-01
 -1       568 1.50000E+00 4.95700E-01 5.00000E-01
 -1       569 1.60000E+00 4.95700E-01 5.00000E-01
 -1       570 1.70000E+00 4.95700E-01 5.00000E-01
 -1       571 1.80000E+00 4.95700E-01 5.00000E-01
 -1       572 1.90000E+00 4.95700E-01 5.00000E-01
 -1       573 2.00000E+00 4.95700E-01 5.00000E-01
 -1       574 2.10000E+00 4.95700E-01 5.00000E-01
 -1       575 2.20000E+00 4.95700E-01 5.00000E-01
 -1       576 2.30000E+00 4.95700E-01 5.00000E-01
 -1       577 2.40000E+00 4.95700E-01 5.00000E-01
 -1       578 2.50000E+00 4.95700E-01 5.00000E-01
 -1       579 2.60000E+00 4.95700E-01 5.00000E-01
 -1       580 2.70000E+00 4.95700E-01 5.00000E-01
 -1       581 2.80000E+00 4.95700E-01 5.00000E-01
 -1       582 2.90000E+00 4.95700E-01 5.00000E-01
 -1       583 1.00000E-01 4.95700E-01 5.93250E-01