    1C
    1UUSER                                                              
    1UDATE              17.october.2022                                 
    1UTIME              08:47:01                                        
    1UHOST                                                              
    1UPGM               CalculiX                                        
    1UVERSION           Version 2.20                             
    1UCOMPILETIME       Fri Jul 29 19:13:05 CEST 2022                    
    1UDIR                                                               
    1UDBN                                                               
    1UMAT    1S420                                                      
    2C                           930                                     1
 -1       404 0.00000E+00 5.90000E-01 2.93250E-01
 -1       406 0.00000E+00 5.90000E-01 3.06750E-01
 -1       407 3.00000E+00 5.90000E-01 2.93250E-01
 -1       409 3.00000E+00 5.90000E-01 3.06750E-01
 -1       410 3.00000E+00 5.00000E-01 2.93250E-01
 -1       412 3.00000E+00 5.00000E-01 3.06750E-01
 -1       413 3.00000E+00 4.95700E-01 3.00000E-01
 -1       415 3.00000E+00 5.04300E-01 3.00000E-01
 -1       424 0.00000E+00 5.00000E-01 2.93250E-01
 -1       426 0.00000E+00 5.00000E-01 3.06750E-01
 -1       427 0.00000E+00 4.95700E-01 3.00000E-01
 -1       429 0.00000E+00 5.04300E-01 3.00000E-01
 -1       438 3.00000E+00 4.10000E-01 2.93250E-01
 -1       440 3.00000E+00 4.10000E-01 3.06750E-01
 -1       441 0.00000E+00 4.10000E-01 2.93250E-01
 -1       443 0.00000E+00 4.10000E-01 3.06750E-01
 -1       444 0.00000E+00 4.95700E-01 7.00000E-01
 -1       446 0.00000E+00 5.04300E-01 7.00000E-01
 -1       447 0.00000E+00 5.00000E-01 7.06750E-01
 -1       449 0.00000E+00 5.00000E-01 6.93250E-01
 -1       458 3.00000E+00 4.95700E-01 7.00000E-01
 -1       460 3.00000E+00 5.04300E-01 7.00000E-01
 -1       461 3.00000E+00 5.00000E-01 7.06750E-01
 -1       463 3.00000E+00 5.00000E-01 6.93250E-01
 -1       472 0.00000E+00 4.10000E-01 7.06750E-01
 -1       474 0.00000E+00 4.10000E-01 6.93250E-01
 -1       475 3.00000E+00 4.10000E-01 7.06750E-01
 -1       477 3.00000E+00 4.10000E-01 6.93250E-01
 -1       478 3.00000E+00 5.90000E-01 7.06750E-01
 -1       480 3.00000E+00 5.90000E-01 6.93250E-01
 -1       481 0.00000E+00 5.90000E-01 7.06750E-01
 -1       483 0.00000E+00 5.90000E-01 6.93250E-01
 -1       484 1.00000E-01 5.90000E-01 2.93250E-01
 -1       486 1.00000E-01 5.90000E-01 3.06750E-01
 -1       487 2.00000E-01 5.90000E-01 2.93250E-01
 -1       489 2.00000E-01 5.90000E-01 3.06750E-01
 -1       490 3.00000E-01 5.90000E-01 2.93250E-01
 -1       492 3.00000E-01 5.90000E-01 3.06750E-01
 -1       493 4.00000E-01 5.90000E-01 2.93250E-01
 -1       495 4.00000E-01 5.90000E-01 3.06750E-01
 -1       496 5.00000E-01 5.90000E-01 2.93250E-01
 -1       498 5.00000E-01 5.90000E-01 3.06750E-01
 -1       499 6.00000E-01 5.90000E-01 2.93250E-01
 -1       501 6.00000E-01 5.90000E-01 3.06750E-01
 -1       502 7.00000E-01 5.90000E-01 2.93250E-01
 -1       504 7.00000E-01 5.90000E-01 3.06750E-01
 -1       505 8.00000E-01 5.90000E-01 2.93250E-01
 -1       507 8.00000E-01 5.90000E-01 3.06750E-01
 -1       508 9.00000E-01 5.90000E-01 2.93250E-01
 -1       510 9.00000E-01 5.90000E-01 3.06750E-01
 -1       511 1.00000E+00 5.90000E-01 2.93250E-01
 -1       513 1.00000E+00 5.90000E-01 3.06750E-01
 -1       514 1.10000E+00 5.90000E-01 2.93250E-01
 -1       516 1.10000E+00 5.90000E-01 3.06750E-01
 -1       517 1.20000E+00 5.90000E-01 2.93250E-01
 -1       519 1.20000E+00 5.90000E-01 3.06750E-01
 -1       520 1.30000E+00 5.90000E-01 2.93250E-01
 -1       522 1.30000E+00 5.90000E-01 3.06750E-01
 -1       523 1.40000E+00 5.90000E-01 2.93250E-01
 -1       525 1.40000E+00 5.90000E-01 3.06750E-01
 -1       526 1.50000E+00 5.90000E-01 2.93250E-01
 -1       528 1.50000E+00 5.90000E-01 3.06750E-01
 -1       529 1.60000E+00 5.90000E-01 2.93250E-01
 -1       531 1.60000E+00 5.90000E-01 3.06750E-01
 -1       532 1.70000E+00 5.90000E-01 2.93250E-01
 -1       534 1.70000E+00 5.90000E-01 3.06750E-01
 -1       535 1.80000E+00 5.90000E-01 2.93250E-01
 -1       537 1.80000E+00 5.90000E-01 3.06750E-01
 -1       538 1.90000E+00 5.90000E-01 2.93250E-01
 -1       540 1.90000E+00 5.90000E-01 3.06750E-01
 -1       541 2.00000E+00 5.90000E-01 2.93250E-01
 -1       543 2.00000E+00 5.90000E-01 3.06750E-01
 -1       544 2.10000E+00 5.90000E-01 2.93250E-01
 -1       546 2.10000E+00 5.90000E-01 3.06750E-01
 -1       547 2.20000E+00 5.90000E-01 2.93250E-01
 -1       549 2.20000E+00 5.90000E-01 3.06750E-01
 -1       550 2.30000E+00 5.90000E-01 2.93250E-01
 -1       552 2.30000E+00 5.90000E-01 3.06750E-01
 -1       553 2.40000E+00 5.90000E-01 2.93250E-01
 -1       555 2.40000E+00 5.90000E-01 3.06750E-01
 -1       556 2.50000E+00 5.90000E-01 2.93250E-01
 -1       558 2.50000E+00 5.90000E-01 3.06750E-01
 -1       559 2.60000E+00 5.90000E-01 2.93250E-01
 -1       561 2.60000E+00 5.90000E-01 3.06750E-01
 -1       562 2.70000E+00 5.90000E-01 2.93250E-01
 -1       564 2.70000E+00 5.90000E-01 3.06750E-01
 -1       565 2.80000E+00 5.90000E-01 2.93250E-01
 -1       567 2.80000E+00 5.90000E-01 3.06750E-01
 -1       568 2.90000E+00 5.90000E-01 2.93250E-01
 -1       570 2.90000E+00 5.90000E-01 3.06750E-01
 -1       571 3.00000E+00 5.45000E-01 2.93250E-01
 -1       573 3.00000E+00 5.45000E-01 3.06750E-01
 -1       574 1.00000E-01 5.00000E-01 2.93250E-01
 -1       576 1.00000E-01 5.00000E-01 3.06750E-01
 -1       577 1.00000E-01 4.95700E-01 3.00000E-01
 -1       579 1.00000E-01 5.04300E-01 3.00000E-01
 -1       588 2.00000E-01 5.00000E-01 2.93250E-01
 -1       590 2.00000E-01 5.00000E-01 3.06750E-01
 -1       591 2.00000E-01 4.95700E-01 3.00000E-01
 -1       593 2.00000E-01 5.04300E-01 3.00000E-01
 -1       602 3.00000E-01 5.00000E-01 2.93250E-01
 -1       604 3.00000E-01 5.00000E-01 3.06750E-01
 -1       605 3.00000E-01 4.95700E-01 3.00000E-01
 -1       607 3.00000E-01 5.04300E-01 3.00000E-01
 -1       616 4.00000E-01 5.00000E-01 2.93250E-01
 -1       618 4.00000E-01 5.00000E-01 3.06750E-01
 -1       619 4.00000E-01 4.95700E-01 3.00000E-01
 -1       621 4.00000E-01 5.04300E-01 3.00000E-01
 -1       630 5.00000E-01 5.00000E-01 2.93250E-01
 -1       632 5.00000E-01 5.00000E-01 3.06750E-01
 -1       633 5.00000E-01 4.95700E-01 3.00000E-01
 -1       635 5.00000E-01 5.04300E-01 3.00000E-01
 -1       644 6.00000E-01 5.00000E-01 2.93250E-01
 -1       646 6.00000E-01 5.00000E-01 3.06750E-01
 -1       647 6.00000E-01 4.95700E-01 3.00000E-01
 -1       649 6.00000E-01 5.04300E-01 3.00000E-01
 -1       658 7.00000E-01 5.00000E-01 2.93250E-01
 -1       660 7.00000E-01 5.00000E-01 3.06750E-01
 -1       661 7.00000E-01 4.95700E-01 3.00000E-01
 -1       663 7.00000E-01 5.04300E-01 3.00000E-01
 -1       672 8.00000E-01 5.00000E-01 2.93250E-01
 -1       674 8.00000E-01 5.00000E-01 3.06750E-01
 -1       675 8.00000E-01 4.95700E-01 3.00000E-01
 -1       677 8.00000E-01 5.04300E-01 3.00000E-01
 -1       686 9.00000E-01 5.00000E-01 2.93250E-01
 -1       688 9.00000E-01 5.00000E-01 3.06750E-01
 -1       689 9.00000E-01 4.95700E-01 3.00000E-01
 -1       691 9.00000E-01 5.04300E-01 3.00000E-01
 -1       700 1.00000E+00 5.00000E-01 2.93250E-01
 -1       702 1.00000E+00 5.00000E-01 3.06750E-01
 -1       703 1.00000E+00 4.95700E-01 3.00000E-01
 -1       705 1.00000E+00 5.04300E-01 3.00000E-01
 -1       714 1.10000E+00 5.00000E-01 2.93250E-01
 -1       716 1.10000E+00 5.00000E-01 3.06750E-01
 -1       717 1.10000E+00 4.95700E-01 3.00000E-01
 -1       719 1.10000E+00 5.04300E-01 3.00000E-01
 -1       728 1.20000E+00 5.00000E-01 2.93250E-01
 -1       730 1.20000E+00 5.00000E-01 3.06750E-01
 -1       731 1.20000E+00 4.95700E-01 3.00000E-01
 -1       733 1.20000E+00 5.04300E-01 3.00000E-01
 -1       742 1.30000E+00 5.00000E-01 2.93250E-01
 -1       744 1.30000E+00 5.00000E-01 3.06750E-01
 -1       745 1.30000E+00 4.95700E-01 3.00000E-01
 -1       747 1.30000E+00 5.04300E-01 3.00000E-01
 -1       756 1.40000E+00 5.00000E-01 2.93250E-01
 -1       758 1.40000E+00 5.00000E-01 3.06750E-01
 -1       759 1.40000E+00 4.95700E-01 3.00000E-01
 -1       761 1.40000E+00 5.04300E-01 3.00000E-01
 -1       770 1.50000E+00 5.00000E-01 2.93250E-01
 -1       772 1.50000E+00 5.00000E-01 3.06750E-01
 -1       773 1.50000E+00 4.95700E-01 3.00000E-01
 -1       775 1.50000E+00 5.04300E-01 3.00000E-01
 -1       784 1.60000E+00 5.00000E-01 2.93250E-01
 -1       786 1.60000E+00 5.00000E-01 3.06750E-01
 -1       787 1.60000E+00 4.95700E-01 3.00000E-01
 -1       789 1.60000E+00 5.04300E-01 3.00000E-01
 -1       798 1.70000E+00 5.00000E-01 2.93250E-01
 -1       800 1.70000E+00 5.00000E-01 3.06750E-01
 -1       801 1.70000E+00 4.95700E-01 3.00000E-01
 -1       803 1.70000E+00 5.04300E-01 3.00000E-01
 -1       812 1.80000E+00 5.00000E-01 2.93250E-01
 -1       814 1.80000E+00 5.00000E-01 3.06750E-01
 -1       815 1.80000E+00 4.95700E-01 3.00000E-01
 -1       817 1.80000E+00 5.04300E-01 3.00000E-01
 -1       826 1.90000E+00 5.00000E-01 2.93250E-01
 -1       828 1.90000E+00 5.00000E-01 3.06750E-01
 -1       829 1.90000E+00 4.95700E-01 3.00000E-01
 -1       831 1.90000E+00 5.04300E-01 3.00000E-01
 -1       840 2.00000E+00 5.00000E-01 2.93250E-01
 -1       842 2.00000E+00 5.00000E-01 3.06750E-01
 -1       843 2.00000E+00 4.95700E-01 3.00000E-01
 -1       845 2.00000E+00 5.04300E-01 3.00000E-01
 -1       854 2.10000E+00 5.00000E-01 2.93250E-01
 -1       856 2.10000E+00 5.00000E-01 3.06750E-01
 -1       857 2.10000E+00 4.95700E-01 3.00000E-01
 -1       859 2.10000E+00 5.04300E-01 3.00000E-01
 -1       868 2.20000E+00 5.00000E-01 2.93250E-01
 -1       870 2.20000E+00 5.00000E-01 3.06750E-01
 -1       871 2.20000E+00 4.95700E-01 3.00000E-01
 -1       873 2.20000E+00 5.04300E-01 3.00000E-01
 -1       882 2.30000E+00 5.00000E-01 2.93250E-01
 -1       884 2.30000E+00 5.00000E-01 3.06750E-01
 -1       885 2.30000E+00 4.95700E-01 3.00000E-01
 -1       887 2.30000E+00 5.04300E-01 3.00000E-01
 -1       896 2.40000E+00 5.00000E-01 2.93250E-01
 -1       898 2.40000E+00 5.00000E-01 3.06750E-01
 -1       899 2.40000E+00 4.95700E-01 3.00000E-01
 -1       901 2.40000E+00 5.04300E-01 3.00000E-01
 -1       910 2.50000E+00 5.00000E-01 2.93250E-01
 -1       912 2.50000E+00 5.00000E-01 3.06750E-01
 -1       913 2.50000E+00 4.95700E-01 3.00000E-01
 -1       915 2.50000E+00 5.04300E-01 3.00000E-01
 -1       924 2.60000E+00 5.00000E-01 2.93250E-01
 -1       926 2.60000E+00 5.00000E-01 3.06750E-01
 -1       927 2.60000E+00 4.95700E-01 3.00000E-01
 -1       929 2.60000E+00 5.04300E-01 3.00000E-01
 -1       938 2.70000E+00 5.00000E-01 2.93250E-01
 -1       940 2.70000E+00 5.00000E-01 3.06750E-01
 -1       941 2.70000E+00 4.95700E-01 3.00000E-01
 -1       943 2.70000E+00 5.04300E-01 3.00000E-01
 -1       952 2.80000E+00 5.00000E-01 2.93250E-01
 -1       954 2.80000E+00 5.00000E-01 3.06750E-01
 -1       955 2.80000E+00 4.95700E-01 3.00000E-01
 -1       957 2.80000E+00 5.04300E-01 3.00000E-01
 -1       966 2.90000E+00 5.00000E-01 2.93250E-01
 -1       968 2.90000E+00 5.00000E-01 3.06750E-01
 -1       969 2.90000E+00 4.95700E-01 3.00000E-01
 -1       971 2.90000E+00 5.04300E-01 3.00000E-01
 -1       980 0.00000E+00 5.45000E-01 2.93250E-01
 -1       982 0.00000E+00 5.45000E-01 3.06750E-01
 -1       983 3.00000E+00 4.55000E-01 2.93250E-01
 -1       985 3.00000E+00 4.55000E-01 3.06750E-01
 -1       986 1.00000E-01 4.10000E-01 2.93250E-01
 -1       988 1.00000E-01 4.10000E-01 3.06750E-01
 -1       989 2.00000E-01 4.10000E-01 2.93250E-01
 -1       991 2.00000E-01 4.10000E-01 3.06750E-01
 -1       992 3.00000E-01 4.10000E-01 2.93250E-01
 -1       994 3.00000E-01 4.10000E-01 3.06750E-01
 -1       995 4.00000E-01 4.10000E-01 2.93250E-01
 -1       997 4.00000E-01 4.10000E-01 3.06750E-01
 -1       998 5.00000E-01 4.10000E-01 2.93250E-01
 -1      1000 5.00000E-01 4.10000E-01 3.06750E-01
 -1      1001 6.00000E-01 4.10000E-01 2.93250E-01
 -1      1003 6.00000E-01 4.10000E-01 3.06750E-01
 -1      1004 7.00000E-01 4.10000E-01 2.93250E-01
 -1      1006 7.00000E-01 4.10000E-01 3.06750E-01
 -1      1007 8.00000E-01 4.10000E-01 2.93250E-01
 -1      1009 8.00000E-01 4.10000E-01 3.06750E-01
 -1      1010 9.00000E-01 4.10000E-01 2.93250E-01
 -1      1012 9.00000E-01 4.10000E-01 3.06750E-01
 -1      1013 1.00000E+00 4.10000E-01 2.93250E-01
 -1      1015 1.00000E+00 4.10000E-01 3.06750E-01
 -1      1016 1.10000E+00 4.10000E-01 2.93250E-01
 -1      1018 1.10000E+00 4.10000E-01 3.06750E-01
 -1      1019 1.20000E+00 4.10000E-01 2.93250E-01
 -1      1021 1.20000E+00 4.10000E-01 3.06750E-01
 -1      1022 1.30000E+00 4.10000E-01 2.93250E-01
 -1      1024 1.30000E+00 4.10000E-01 3.06750E-01
 -1      1025 1.40000E+00 4.10000E-01 2.93250E-01
 -1      1027 1.40000E+00 4.10000E-01 3.06750E-01
 -1      1028 1.50000E+00 4.10000E-01 2.93250E-01
 -1      1030 1.50000E+00 4.10000E-01 3.06750E-01
 -1      1031 1.60000E+00 4.10000E-01 2.93250E-01
 -1      1033 1.60000E+00 4.10000E-01 3.06750E-01
 -1      1034 1.70000E+00 4.10000E-01 2.93250E-01
 -1      1036 1.70000E+00 4.10000E-01 3.06750E-01
 -1      1037 1.80000E+00 4.10000E-01 2.93250E-01
 -1      1039 1.80000E+00 4.10000E-01 3.06750E-01
 -1      1040 1.90000E+00 4.10000E-01 2.93250E-01
 -1      1042 1.90000E+00 4.10000E-01 3.06750E-01
 -1      1043 2.00000E+00 4.10000E-01 2.93250E-01
 -1      1045 2.00000E+00 4.10000E-01 3.06750E-01
 -1      1046 2.10000E+00 4.10000E-01 2.93250E-01
 -1      1048 2.10000E+00 4.10000E-01 3.06750E-01
 -1      1049 2.20000E+00 4.10000E-01 2.93250E-01
 -1      1051 2.20000E+00 4.10000E-01 3.06750E-01
 -1      1052 2.30000E+00 4.10000E-01 2.93250E-01
 -1      1054 2.30000E+00 4.10000E-01 3.06750E-01
 -1      1055 2.40000E+00 4.10000E-01 2.93250E-01
 -1      1057 2.40000E+00 4.10000E-01 3.06750E-01
 -1      1058 2.50000E+00 4.10000E-01 2.93250E-01
 -1      1060 2.50000E+00 4.10000E-01 3.06750E-01
 -1      1061 2.60000E+00 4.10000E-01 2.93250E-01
 -1      1063 2.60000E+00 4.10000E-01 3.06750E-01
 -1      1064 2.70000E+00 4.10000E-01 2.93250E-01
 -1      1066 2.70000E+00 4.10000E-01 3.06750E-01
 -1      1067 2.80000E+00 4.10000E-01 2.93250E-01
 -1      1069 2.80000E+00 4.10000E-01 3.06750E-01
 -1      1070 2.90000E+00 4.10000E-01 2.93250E-01
 -1      1072 2.90000E+00 4.10000E-01 3.06750E-01
 -1      1073 0.00000E+00 4.55000E-01 2.93250E-01
 -1      1075 0.00000E+00 4.55000E-01 3.06750E-01
 -1      1076 0.00000E+00 4.95700E-01 4.00000E-01
 -1      1078 0.00000E+00 5.04300E-01 4.00000E-01
 -1      1079 0.00000E+00 4.95700E-01 5.00000E-01
 -1      1081 0.00000E+00 5.04300E-01 5.00000E-01
 -1      1082 0.00000E+00 4.95700E-01 6.00000E-01
 -1      1084 0.00000E+00 5.04300E-01 6.00000E-01
 -1      1085 1.00000E-01 4.95700E-01 7.00000E-01
 -1      1087 1.00000E-01 5.04300E-01 7.00000E-01
 -1      1088 1.00000E-01 5.00000E-01 7.06750E-01
 -1      1090 1.00000E-01 5.00000E-01 6.93250E-01
 -1      1099 2.00000E-01 4.95700E-01 7.00000E-01
 -1      1101 2.00000E-01 5.04300E-01 7.00000E-01
 -1      1102 2.00000E-01 5.00000E-01 7.06750E-01
 -1      1104 2.00000E-01 5.00000E-01 6.93250E-01
 -1      1113 3.00000E-01 4.95700E-01 7.00000E-01
 -1      1115 3.00000E-01 5.04300E-01 7.00000E-01
 -1      1116 3.00000E-01 5.00000E-01 7.06750E-01
 -1      1118 3.00000E-01 5.00000E-01 6.93250E-01
 -1      1127 4.00000E-01 4.95700E-01 7.00000E-01
 -1      1129 4.00000E-01 5.04300E-01 7.00000E-01
 -1      1130 4.00000E-01 5.00000E-01 7.06750E-01
 -1      1132 4.00000E-01 5.00000E-01 6.93250E-01
 -1      1141 5.00000E-01 4.95700E-01 7.00000E-01
 -1      1143 5.00000E-01 5.04300E-01 7.00000E-01
 -1      1144 5.00000E-01 5.00000E-01 7.06750E-01
 -1      1146 5.00000E-01 5.00000E-01 6.93250E-01
 -1      1155 6.00000E-01 4.95700E-01 7.00000E-01
 -1      1157 6.00000E-01 5.04300E-01 7.00000E-01
 -1      1158 6.00000E-01 5.00000E-01 7.06750E-01
 -1      1160 6.00000E-01 5.00000E-01 6.93250E-01
 -1      1169 7.00000E-01 4.95700E-01 7.00000E-01
 -1      1171 7.00000E-01 5.04300E-01 7.00000E-01
 -1      1172 7.00000E-01 5.00000E-01 7.06750E-01
 -1      1174 7.00000E-01 5.00000E-01 6.93250E-01
 -1      1183 8.00000E-01 4.95700E-01 7.00000E-01
 -1      1185 8.00000E-01 5.04300E-01 7.00000E-01
 -1      1186 8.00000E-01 5.00000E-01 7.06750E-01
 -1      1188 8.00000E-01 5.00000E-01 6.93250E-01
 -1      1197 9.00000E-01 4.95700E-01 7.00000E-01
 -1      1199 9.00000E-01 5.04300E-01 7.00000E-01
 -1      1200 9.00000E-01 5.00000E-01 7.06750E-01
 -1      1202 9.00000E-01 5.00000E-01 6.93250E-01
 -1      1211 1.00000E+00 4.95700E-01 7.00000E-01
 -1      1213 1.00000E+00 5.04300E-01 7.00000E-01
 -1      1214 1.00000E+00 5.00000E-01 7.06750E-01
 -1      1216 1.00000E+00 5.00000E-01 6.93250E-01
 -1      1225 1.10000E+00 4.95700E-01 7.00000E-01
 -1      1227 1.10000E+00 5.04300E-01 7.00000E-01
 -1      1228 1.10000E+00 5.00000E-01 7.06750E-01
 -1      1230 1.10000E+00 5.00000E-01 6.93250E-01
 -1      1239 1.20000E+00 4.95700E-01 7.00000E-01
 -1      1241 1.20000E+00 5.04300E-01 7.00000E-01
 -1      1242 1.20000E+00 5.00000E-01 7.06750E-01
 -1      1244 1.20000E+00 5.00000E-01 6.93250E-01
 -1      1253 1.30000E+00 4.95700E-01 7.00000E-01
 -1      1255 1.30000E+00 5.04300E-01 7.00000E-01
 -1      1256 1.30000E+00 5.00000E-01 7.06750E-01
 -1      1258 1.30000E+00 5.00000E-01 6.93250E-01
 -1      1267 1.40000E+00 4.95700E-01 7.00000E-01
 -1      1269 1.40000E+00 5.04300E-01 7.00000E-01
 -1      1270 1.40000E+00 5.00000E-01 7.06750E-01
 -1      1272 1.40000E+00 5.00000E-01 6.93250E-01
 -1      1281 1.50000E+00 4.95700E-01 7.00000E-01
 -1      1283 1.50000E+00 5.04300E-01 7.00000E-01
 -1      1284 1.50000E+00 5.00000E-01 7.06750E-01
 -1      1286 1.50000E+00 5.00000E-01 6.93250E-01
 -1      1295 1.60000E+00 4.95700E-01 7.00000E-01
 -1      1297 1.60000E+00 5.04300E-01 7.00000E-01
 -1      1298 1.60000E+00 5.00000E-01 7.06750E-01
 -1      1300 1.60000E+00 5.00000E-01 6.93250E-01
 -1      1309 1.70000E+00 4.95700E-01 7.00000E-01
 -1      1311 1.70000E+00 5.04300E-01 7.00000E-01
 -1      1312 1.70000E+00 5.00000E-01 7.06750E-01
 -1      1314 1.70000E+00 5.00000E-01 6.93250E-01
 -1      1323 1.80000E+00 4.95700E-01 7.00000E-01
 -1      1325 1.80000E+00 5.04300E-01 7.00000E-01
 -1      1326 1.80000E+00 5.00000E-01 7.06750E-01
 -1      1328 1.80000E+00 5.00000E-01 6.93250E-01
 -1      1337 1.90000E+00 4.95700E-01 7.00000E-01
 -1      1339 1.90000E+00 5.04300E-01 7.00000E-01
 -1      1340 1.90000E+00 5.00000E-01 7.06750E-01
 -1      1342 1.90000E+00 5.00000E-01 6.93250E-01
 -1      1351 2.00000E+00 4.95700E-01 7.00000E-01
 -1      1353 2.00000E+00 5.04300E-01 7.00000E-01
 -1      1354 2.00000E+00 5.00000E-01 7.06750E-01
 -1      1356 2.00000E+00 5.00000E-01 6.93250E-01
 -1      1365 2.10000E+00 4.95700E-01 7.00000E-01
 -1      1367 2.10000E+00 5.04300E-01 7.00000E-01
 -1      1368 2.10000E+00 5.00000E-01 7.06750E-01
 -1      1370 2.10000E+00 5.00000E-01 6.93250E-01
 -1      1379 2.20000E+00 4.95700E-01 7.00000E-01
 -1      1381 2.20000E+00 5.04300E-01 7.00000E-01
 -1      1382 2.20000E+00 5.00000E-01 7.06750E-01
 -1      1384 2.20000E+00 5.00000E-01 6.93250E-01
 -1      1393 2.30000E+00 4.95700E-01 7.00000E-01
 -1      1395 2.30000E+00 5.04300E-01 7.00000E-01
 -1      1396 2.30000E+00 5.00000E-01 7.06750E-01
 -1      1398 2.30000E+00 5.00000E-01 6.93250E-01
 -1      1407 2.40000E+00 4.95700E-01 7.00000E-01
 -1      1409 2.40000E+00 5.04300E-01 7.00000E-01
 -1      1410 2.40000E+00 5.00000E-01 7.06750E-01
 -1      1412 2.40000E+00 5.00000E-01 6.93250E-01
 -1      1421 2.50000E+00 4.95700E-01 7.00000E-01
 -1      1423 2.50000E+00 5.04300E-01 7.00000E-01
 -1      1424 2.50000E+00 5.00000E-01 7.06750E-01
 -1      1426 2.50000E+00 5.00000E-01 6.93250E-01
 -1      1435 2.60000E+00 4.95700E-01 7.00000E-01
 -1      1437 2.60000E+00 5.04300E-01 7.00000E-01
 -1      1438 2.60000E+00 5.00000E-01 7.06750E-01
 -1      1440 2.60000E+00 5.00000E-01 6.93250E-01
 -1      1449 2.70000E+00 4.95700E-01 7.00000E-01
 -1      1451 2.70000E+00 5.04300E-01 7.00000E-01
 -1      1452 2.70000E+00 5.00000E-01 7.06750E-01
 -1      1454 2.70000E+00 5.00000E-01 6.93250E-01
 -1      1463 2.80000E+00 4.95700E-01 7.00000E-01
 -1      1465 2.80000E+00 5.04300E-01 7.00000E-01
 -1      1466 2.80000E+00 5.00000E-01 7.06750E-01
 -1      1468 2.80000E+00 5.00000E-01 6.93250E-01
 -1      1477 2.90000E+00 4.95700E-01 7.00000E-01
 -1      1479 2.90000E+00 5.04300E-01 7.00000E-01
 -1      1480 2.90000E+00 5.00000E-01 7.06750E-01
 -1      1482 2.90000E+00 5.00000E-01 6.93250E-01
 -1      1491 3.00000E+00 4.95700E-01 4.00000E-01
 -1      1493 3.00000E+00 5.04300E-01 4.00000E-01
 -1      1494 3.00000E+00 4.95700E-01 5.00000E-01
 -1      1496 3.00000E+00 5.04300E-01 5.00000E-01
 -1      1497 3.00000E+00 4.95700E-01 6.00000E-01
 -1      1499 3.00000E+00 5.04300E-01 6.00000E-01
 -1      1500 1.00000E-01 4.10000E-01 7.06750E-01
 -1      1502 1.00000E-01 4.10000E-01 6.93250E-01
 -1      1503 2.00000E-01 4.10000E-01 7.06750E-01
 -1      1505 2.00000E-01 4.10000E-01 6.93250E-01
 -1      1506 3.00000E-01 4.10000E-01 7.06750E-01
 -1      1508 3.00000E-01 4.10000E-01 6.93250E-01
 -1      1509 4.00000E-01 4.10000E-01 7.06750E-01
 -1      1511 4.00000E-01 4.10000E-01 6.93250E-01
 -1      1512 5.00000E-01 4.10000E-01 7.06750E-01
 -1      1514 5.00000E-01 4.10000E-01 6.93250E-01
 -1      1515 6.00000E-01 4.10000E-01 7.06750E-01
 -1      1517 6.00000E-01 4.10000E-01 6.93250E-01
 -1      1518 7.00000E-01 4.10000E-01 7.06750E-01
 -1      1520 7.00000E-01 4.10000E-01 6.93250E-01
 -1      1521 8.00000E-01 4.10000E-01 7.06750E-01
 -1      1523 8.00000E-01 4.10000E-01 6.93250E-01
 -1      1524 9.00000E-01 4.10000E-01 7.06750E-01
 -1      1526 9.00000E-01 4.10000E-01 6.93250E-01
 -1      1527 1.00000E+00 4.10000E-01 7.06750E-01
 -1      1529 1.00000E+00 4.10000E-01 6.93250E-01
 -1      1530 1.10000E+00 4.10000E-01 7.06750E-01
 -1      1532 1.10000E+00 4.10000E-01 6.93250E-01
 -1      1533 1.20000E+00 4.10000E-01 7.06750E-01
 -1      1535 1.20000E+00 4.10000E-01 6.93250E-01
 -1      1536 1.30000E+00 4.10000E-01 7.06750E-01
 -1      1538 1.30000E+00 4.10000E-01 6.93250E-01
 -1      1539 1.40000E+00 4.10000E-01 7.06750E-01
 -1      1541 1.40000E+00 4.10000E-01 6.93250E-01
 -1      1542 1.50000E+00 4.10000E-01 7.06750E-01
 -1      1544 1.50000E+00 4.10000E-01 6.93250E-01
 -1      1545 1.60000E+00 4.10000E-01 7.06750E-01
 -1      1547 1.60000E+00 4.10000E-01 6.93250E-01
 -1      1548 1.70000E+00 4.10000E-01 7.06750E-01
 -1      1550 1.70000E+00 4.10000E-01 6.93250E-01
 -1      1551 1.80000E+00 4.10000E-01 7.06750E-01
 -1      1553 1.80000E+00 4.10000E-01 6.93250E-01
 -1      1554 1.90000E+00 4.10000E-01 7.06750E-01
 -1      1556 1.90000E+00 4.10000E-01 6.93250E-01
 -1      1557 2.00000E+00 4.10000E-01 7.06750E-01
 -1      1559 2.00000E+00 4.10000E-01 6.93250E-01
 -1      1560 2.10000E+00 4.10000E-01 7.06750E-01
 -1      1562 2.10000E+00 4.10000E-01 6.93250E-01
 -1      1563 2.20000E+00 4.10000E-01 7.06750E-01
 -1      1565 2.20000E+00 4.10000E-01 6.93250E-01
 -1      1566 2.30000E+00 4.10000E-01 7.06750E-01
 -1      1568 2.30000E+00 4.10000E-01 6.93250E-01
 -1      1569 2.40000E+00 4.10000E-01 7.06750E-01
 -1      1571 2.40000E+00 4.10000E-01 6.93250E-01
 -1      1572 2.50000E+00 4.10000E-01 7.06750E-01
 -1      1574 2.50000E+00 4.10000E-01 6.93250E-01
 -1      1575 2.60000E+00 4.10000E-01 7.06750E-01
 -1      1577 2.60000E+00 4.10000E-01 6.93250E-01
 -1      1578 2.70000E+00 4.10000E-01 7.06750E-01
 -1      1580 2.70000E+00 4.10000E-01 6.93250E-01
 -1      1581 2.80000E+00 4.10000E-01 7.06750E-01
 -1      1583 2.80000E+00 4.10000E-01 6.93250E-01
 -1      1584 2.90000E+00 4.10000E-01 7.06750E-01
 -1      1586 2.90000E+00 4.10000E-01 6.93250E-01
 -1      1587 3.00000E+00 4.55000E-01 7.06750E-01
 -1      1589 3.00000E+00 4.55000E-01 6.93250E-01
 -1      1590 0.00000E+00 4.55000E-01 7.06750E-01
 -1      1592 0.00000E+00 4.55000E-01 6.93250E-01
 -1      1593 3.00000E+00 5.45000E-01 7.06750E-01
 -1      1595 3.00000E+00 5.45000E-01 6.93250E-01
 -1      1596 1.00000E-01 5.90000E-01 7.06750E-01
 -1      1598 1.00000E-01 5.90000E-01 6.93250E-01
 -1      1599 2.00000E-01 5.90000E-01 7.06750E-01
 -1      1601 2.00000E-01 5.90000E-01 6.93250E-01
 -1      1602 3.00000E-01 5.90000E-01 7.06750E-01
 -1      1604 3.00000E-01 5.90000E-01 6.93250E-01
 -1      1605 4.00000E-01 5.90000E-01 7.06750E-01
 -1      1607 4.00000E-01 5.90000E-01 6.93250E-01
 -1      1608 5.00000E-01 5.90000E-01 7.06750E-01
 -1      1610 5.00000E-01 5.90000E-01 6.93250E-01
 -1      1611 6.00000E-01 5.90000E-01 7.06750E-01
 -1      1613 6.00000E-01 5.90000E-01 6.93250E-01
 -1      1614 7.00000E-01 5.90000E-01 7.06750E-01
 -1      1616 7.00000E-01 5.90000E-01 6.93250E-01
 -1      1617 8.00000E-01 5.90000E-01 7.06750E-01
 -1      1619 8.00000E-01 5.90000E-01 6.93250E-01
 -1      1620 9.00000E-01 5.90000E-01 7.06750E-01
 -1      1622 9.00000E-01 5.90000E-01 6.93250E-01
 -1      1623 1.00000E+00 5.90000E-01 7.06750E-01
 -1      1625 1.00000E+00 5.90000E-01 6.93250E-01
 -1      1626 1.10000E+00 5.90000E-01 7.06750E-01
 -1      1628 1.10000E+00 5.90000E-01 6.93250E-01
 -1      1629 1.20000E+00 5.90000E-01 7.06750E-01
 -1      1631 1.20000E+00 5.90000E-01 6.93250E-01
 -1      1632 1.30000E+00 5.90000E-01 7.06750E-01
 -1      1634 1.30000E+00 5.90000E-01 6.93250E-01
 -1      1635 1.40000E+00 5.90000E-01 7.06750E-01
 -1      1637 1.40000E+00 5.90000E-01 6.93250E-01
 -1      1638 1.50000E+00 5.90000E-01 7.06750E-01
 -1      1640 1.50000E+00 5.90000E-01 6.93250E-01
 -1      1641 1.60000E+00 5.90000E-01 7.06750E-01
 -1      1643 1.60000E+00 5.90000E-01 6.93250E-01
 -1      1644 1.70000E+00 5.90000E-01 7.06750E-01
 -1      1646 1.70000E+00 5.90000E-01 6.93250E-01
 -1      1647 1.80000E+00 5.90000E-01 7.06750E-01
 -1      1649 1.80000E+00 5.90000E-01 6.93250E-01
 -1      1650 1.90000E+00 5.90000E-01 7.06750E-01
 -1      1652 1.90000E+00 5.90000E-01 6.93250E-01
 -1      1653 2.00000E+00 5.90000E-01 7.06750E-01
 -1      1655 2.00000E+00 5.90000E-01 6.93250E-01
 -1      1656 2.10000E+00 5.90000E-01 7.06750E-01
 -1      1658 2.10000E+00 5.90000E-01 6.93250E-01
 -1      1659 2.20000E+00 5.90000E-01 7.06750E-01
 -1      1661 2.20000E+00 5.90000E-01 6.93250E-01
 -1      1662 2.30000E+00 5.90000E-01 7.06750E-01
 -1      1664 2.30000E+00 5.90000E-01 6.93250E-01
 -1      1665 2.40000E+00 5.90000E-01 7.06750E-01
 -1      1667 2.40000E+00 5.90000E-01 6.93250E-01
 -1      1668 2.50000E+00 5.90000E-01 7.06750E-01
 -1      1670 2.50000E+00 5.90000E-01 6.93250E-01
 -1      1671 2.60000E+00 5.90000E-01 7.06750E-01
 -1      1673 2.60000E+00 5.90000E-01 6.93250E-01
 -1      1674 2.70000E+00 5.90000E-01 7.06750E-01
 -1      1676 2.70000E+00 5.90000E-01 6.93250E-01
 -1      1677 2.80000E+00 5.90000E-01 7.06750E-01
 -1      1679 2.80000E+00 5.90000E-01 6.93250E-01
 -1      1680 2.90000E+00 5.90000E-01 7.06750E-01
 -1      1682 2.90000E+00 5.90000E-01 6.93250E-01
 -1      1683 0.00000E+00 5.45000E-01 7.06750E-01
 -1      1685 0.00000E+00 5.45000E-01 6.93250E-01
 -1      1686 1.00000E-01 5.45000E-01 2.93250E-01
 -1      1688 1.00000E-01 5.45000E-01 3.06750E-01
 -1      1689 2.00000E-01 5.45000E-01 2.93250E-01
 -1      1691 2.00000E-01 5.45000E-01 3.06750E-01
 -1      1692 3.00000E-01 5.45000E-01 2.93250E-01
 -1      1694 3.00000E-01 5.45000E-01 3.06750E-01
 -1      1695 4.00000E-01 5.45000E-01 2.93250E-01
 -1      1697 4.00000E-01 5.45000E-01 3.06750E-01
 -1      1698 5.00000E-01 5.45000E-01 2.93250E-01
 -1      1700 5.00000E-01 5.45000E-01 3.06750E-01
 -1      1701 6.00000E-01 5.45000E-01 2.93250E-01
 -1      1703 6.00000E-01 5.45000E-01 3.06750E-01
 -1      1704 7.00000E-01 5.45000E-01 2.93250E-01
 -1      1706 7.00000E-01 5.45000E-01 3.06750E-01
 -1      1707 8.00000E-01 5.45000E-01 2.93250E-01
 -1      1709 8.00000E-01 5.45000E-01 3.06750E-01
 -1      1710 9.00000E-01 5.45000E-01 2.93250E-01
 -1      1712 9.00000E-01 5.45000E-01 3.06750E-01
 -1      1713 1.00000E+00 5.45000E-01 2.93250E-01
 -1      1715 1.00000E+00 5.45000E-01 3.06750E-01
 -1      1716 1.10000E+00 5.45000E-01 2.93250E-01
 -1      1718 1.10000E+00 5.45000E-01 3.06750E-01
 -1      1719 1.20000E+00 5.45000E-01 2.93250E-01
 -1      1721 1.20000E+00 5.45000E-01 3.06750E-01
 -1      1722 1.30000E+00 5.45000E-01 2.93250E-01
 -1      1724 1.30000E+00 5.45000E-01 3.06750E-01
 -1      1725 1.40000E+00 5.45000E-01 2.93250E-01
 -1      1727 1.40000E+00 5.45000E-01 3.06750E-01
 -1      1728 1.50000E+00 5.45000E-01 2.93250E-01
 -1      1730 1.50000E+00 5.45000E-01 3.06750E-01
 -1      1731 1.60000E+00 5.45000E-01 2.93250E-01
 -1      1733 1.60000E+00 5.45000E-01 3.06750E-01
 -1      1734 1.70000E+00 5.45000E-01 2.93250E-01
 -1      1736 1.70000E+00 5.45000E-01 3.06750E-01
 -1      1737 1.80000E+00 5.45000E-01 2.93250E-01
 -1      1739 1.80000E+00 5.45000E-01 3.06750E-01
 -1      1740 1.90000E+00 5.45000E-01 2.93250E-01
 -1      1742 1.90000E+00 5.45000E-01 3.06750E-01
 -1      1743 2.00000E+00 5.45000E-01 2.93250E-01
 -1      1745 2.00000E+00 5.45000E-01 3.06750E-01
 -1      1746 2.10000E+00 5.45000E-01 2.93250E-01
 -1      1748 2.10000E+00 5.45000E-01 3.06750E-01
 -1      1749 2.20000E+00 5.45000E-01 2.93250E-01
 -1      1751 2.20000E+00 5.45000E-01 3.06750E-01
 -1      1752 2.30000E+00 5.45000E-01 2.93250E-01
 -1      1754 2.30000E+00 5.45000E-01 3.06750E-01
 -1      1755 2.40000E+00 5.45000E-01 2.93250E-01
 -1      1757 2.40000E+00 5.45000E-01 3.06750E-01
 -1      1758 2.50000E+00 5.45000E-01 2.93250E-01
 -1      1760 2.50000E+00 5.45000E-01 3.06750E-01
 -1      1761 2.60000E+00 5.45000E-01 2.93250E-01
 -1      1763 2.60000E+00 5.45000E-01 3.06750E-01
 -1      1764 2.70000E+00 5.45000E-01 2.93250E-01
 -1      1766 2.70000E+00 5.45000E-01 3.06750E-01
 -1      1767 2.80000E+00 5.45000E-01 2.93250E-01
 -1      1769 2.80000E+00 5.45000E-01 3.06750E-01
 -1      1770 2.90000E+00 5.45000E-01 2.93250E-01
 -1      1772 2.90000E+00 5.45000E-01 3.06750E-01
 -1      1773 1.00000E-01 4.55000E-01 2.93250E-01